 Gaussian 03, Revision D.02,
 Gaussian 03:  AM64L-G03RevD.02  1-Mar-2006

 ----------------------------------------------------------------------
 # opt=(modredundant,maxcycle=80) b3lyp geom=connectivity int=ultrafine
  tzvp
 ----------------------------------------------------------------------

 -------------------
 Title Card Required
 -------------------
 Symbolic Z-matrix:
 Charge =  0 Multiplicity = 1

 SCF Done:  E(RB+HF-LYP) =  -155.104078004     A.U. after   12 cycles
 Optimization completed.
    -- Stationary point found.
 SCF Done:  E(RB+HF-LYP) =  -155.103056871     A.U. after   13 cycles
 SCF Done:  E(RB+HF-LYP) =  -155.103917354     A.U. after   10 cycles
 SCF Done:  E(RB+HF-LYP) =  -155.103966579     A.U. after    8 cycles
 SCF Done:  E(RB+HF-LYP) =  -155.103968670     A.U. after    7 cycles
 SCF Done:  E(RB+HF-LYP) =  -155.103968931     A.U. after    7 cycles
 SCF Done:  E(RB+HF-LYP) =  -155.103968992     A.U. after    6 cycles
 Optimization completed.
 SCF Done:  E(RB+HF-LYP) =  -155.102737750     A.U. after   11 cycles
 SCF Done:  E(RB+HF-LYP) =  -155.103663633     A.U. after   10 cycles
 SCF Done:  E(RB+HF-LYP) =  -155.103665936     A.U. after    7 cycles
 SCF Done:  E(RB+HF-LYP) =  -155.103239014     A.U. after    7 cycles
 SCF Done:  E(RB+HF-LYP) =  -155.102717747     A.U. after   11 cycles
 SCF Done:  E(RB+HF-LYP) =  -155.103662276     A.U. after    9 cycles
 SCF Done:  E(RB+HF-LYP) =  -155.103665888     A.U. after    7 cycles
 SCF Done:  E(RB+HF-LYP) =  -155.103045923     A.U. after   13 cycles
 SCF Done:  E(RB+HF-LYP) =  -155.103964426     A.U. after   13 cycles
 SCF Done:  E(RB+HF-LYP) =  -155.103968947     A.U. after    7 cycles
    -- Stationary point found.
 SCF Done:  E(RB+HF-LYP) =  -155.103167722     A.U. after   13 cycles
 SCF Done:  E(RB+HF-LYP) =  -155.104074727     A.U. after   13 cycles
 SCF Done:  E(RB+HF-LYP) =  -155.104077999     A.U. after    7 cycles
 Optimization completed.
    -- Stationary point found.

                         Standard orientation:
 ---------------------------------------------------------------------
 Center     Atomic     Atomic              Coordinates (Angstroms)
 Number     Number      Type              X           Y           Z
 ---------------------------------------------------------------------
    1          6             0       -0.080954    0.548095    0.000005
    2          1             0       -0.134947    1.193527    0.886355
    3          1             0       -0.134875    1.193656   -0.886296
    4          6             0        1.222393   -0.223579   -0.000001
    5          1             0        1.292004   -0.858812   -0.884595
    6          1             0        2.071913    0.463066    0.000047
    7          1             0        1.291975   -0.858891    0.884538
    8          8             0       -1.155602   -0.395583   -0.000008
    9          1             0       -1.989890    0.085018   -0.000003
 ---------------------------------------------------------------------

 The electronic state is 1-A.
 Alpha  occ. eigenvalues --  -19.12336 -10.21921 -10.16052  -1.02049  -0.75294
 Alpha  occ. eigenvalues --   -0.61434  -0.52098  -0.46910  -0.40620  -0.38688
 Alpha  occ. eigenvalues --   -0.36900  -0.33700  -0.27744
 Alpha virt. eigenvalues --    0.02582   0.05671   0.08992   0.10025   0.11363
 Alpha virt. eigenvalues --    0.13532   0.14982   0.17382   0.20424   0.23240
 Alpha virt. eigenvalues --    0.26850   0.29235   0.31845   0.36938   0.39799

 Mulliken atomic charges:
              1
     1  C   -0.083209
     2  H    0.094816
     3  H    0.094806
     4  C   -0.311334
     5  H    0.117813
     6  H    0.103032
     7  H    0.117813
     8  O   -0.396822
     9  H    0.263085
 Sum of Mulliken charges=   0.00000

 Dipole moment (field-independent basis, Debye):
    X=    -0.1676    Y=     1.7018    Z=     0.0001  Tot=     1.7100
 Quadrupole moment (field-independent basis, Debye-Ang):
   XX=   -17.2179   YY=   -21.0049   ZZ=   -20.3844
   XY=    -2.0734   XZ=    -0.0001   YZ=     0.0000

 Normal termination of Gaussian 03 at Wed Aug 24 17:14:40 2011.
