 Gaussian 09, Revision D.01,
 Gaussian 09:  ES64L-G09RevD.01 24-Apr-2013

 ----------------------------------------------------------------------
 # ccsd(t,t1diag) aug-cc-pvtz geom=connectivity scf=(conver=11,xqc) Max
 Disk=750GB
 ----------------------------------------------------------------------

 -------------------
 Title Card Required
 -------------------
 Symbolic Z-matrix:
 Charge =  0 Multiplicity = 2

                         Standard orientation:
 ---------------------------------------------------------------------
 Center     Atomic      Atomic             Coordinates (Angstroms)
 Number     Number       Type             X           Y           Z
 ---------------------------------------------------------------------
      1          6           0       -2.179781   -0.736971   -0.141647
      2          1           0       -2.682579   -1.207719   -0.984555
      3          1           0       -2.417916   -1.282851    0.777959
      4          1           0       -2.515508    0.298600   -0.041646
      5          8           0       -0.778303   -0.800308   -0.413894
      6          6           0        0.006605   -0.260809    0.593966
      7          1           0       -0.214436   -0.676644    1.581959
      8          8           0       -0.047550    1.119521    0.708366
      9          6           0        0.330951    1.819651   -0.477005
     10          1           0        1.361601    1.577789   -0.753131
     11          1           0       -0.329812    1.573473   -1.310866
     12          1           0        0.253373    2.879348   -0.242936
     13          1           0        1.218358   -0.640339    0.263469
     14          6           0        2.472185   -1.081255   -0.140073
     15          1           0        3.174161   -0.365530    0.280267
     16          1           0        2.427467   -1.076489   -1.225576
     17          1           0        2.552362   -2.077035    0.287842
 ---------------------------------------------------------------------

 SCF Done:  E(UHF) =  -307.592987321     A.U. after   24 cycles
 E2 =    -0.1205087991D+01 EUMP2 =    -0.30879807531144D+03
 CCSD(T)= -0.30890385874D+03

 The electronic state is 2-A.
 Alpha  occ. eigenvalues --  -20.56664 -20.56574 -11.32988 -11.27471 -11.27025
 Alpha  occ. eigenvalues --  -11.22496  -1.42190  -1.34955  -0.98965  -0.95177
 Alpha  occ. eigenvalues --   -0.93492  -0.83376  -0.69700  -0.69399  -0.67916
 Alpha  occ. eigenvalues --   -0.61526  -0.60162  -0.57796  -0.56206  -0.56040
 Alpha  occ. eigenvalues --   -0.54314  -0.52747  -0.48909  -0.45636  -0.44682
 Alpha  occ. eigenvalues --   -0.31870
 Alpha virt. eigenvalues --    0.02775   0.03719   0.03830   0.04118   0.05353
 Alpha virt. eigenvalues --    0.05589   0.05790   0.05994   0.06826   0.08020
 Alpha virt. eigenvalues --    0.08607   0.10688   0.11499   0.12089   0.12888

  Beta  occ. eigenvalues --  -20.56592 -20.56463 -11.31111 -11.27380 -11.27020
  Beta  occ. eigenvalues --  -11.20490  -1.41359  -1.34635  -0.96913  -0.93417
  Beta  occ. eigenvalues --   -0.89298  -0.80977  -0.69222  -0.67694  -0.65736
  Beta  occ. eigenvalues --   -0.60743  -0.60091  -0.56600  -0.55022  -0.54864
  Beta  occ. eigenvalues --   -0.52568  -0.51590  -0.45875  -0.44697  -0.43445
  Beta virt. eigenvalues --    0.02781   0.03635   0.03786   0.04108   0.05357
  Beta virt. eigenvalues --    0.05583   0.05765   0.05948   0.06837   0.08019
  Beta virt. eigenvalues --    0.08635   0.10660   0.10896   0.11525   0.12104

 Mulliken charges and spin densities:
               1          2
     1  C   -0.865620   0.028202
     2  H    0.349188   0.001183
     3  H    0.333860  -0.001508
     4  H    0.368908  -0.002501
     5  O   -0.611552  -0.009595
     6  C    0.067499   0.648621
     7  H    0.455702  -0.009373
     8  O   -0.638757   0.030453
     9  C   -0.883411  -0.001338
    10  H    0.379834   0.003043
    11  H    0.362733   0.001064
    12  H    0.334752  -0.002771
    13  H    0.561179  -0.447544
    14  C   -1.156595   0.863040
    15  H    0.340836  -0.034271
    16  H    0.321581  -0.029607
    17  H    0.279863  -0.037099
 Sum of Mulliken charges =   0.00000   1.00000

 Dipole moment (field-independent basis, Debye):
    X=             -0.5661    Y=              0.1093    Z=             -0.2593  Tot=              0.6322
 Quadrupole moment (field-independent basis, Debye-Ang):
   XX=            -36.1744   YY=            -38.9224   ZZ=            -40.1486
   XY=              1.5487   XZ=             -0.0009   YZ=             -3.7144

 =-308.8458537\MP4SDQ=-308.8543093\CCSD=-308.8533074\CCSD(T)=-308.90385
 Normal termination of Gaussian 09 at Mon Jul 18 17:22:03 2016.
