 Gaussian 09, Revision D.01,
 Gaussian 09:  ES64L-G09RevD.01 24-Apr-2013

 ----------------------------------------------------------------------
 # opt=(TS, calcfc, noeigentest, modredundant) 6-311++g(d,p) geom=conne
 ctivity b2plypd3 int=grid=199974 scf=(conver=11,xqc)
 ----------------------------------------------------------------------

 -------------------
 Title Card Required
 -------------------
 Symbolic Z-matrix:
 Charge =  0 Multiplicity = 2

 SCF Done:  E(UB2PLYPD3) =  -309.161540486     A.U. after   22 cycles
 E2(B2PLYPD3) =    -0.3359324388D+00 E(B2PLYPD3) =    -0.30916154048608D+03
 E2(B2PLYPD3) =    -0.3359324388D+00 E(B2PLYPD3) =    -0.30916154048608D+03

  Exact polarizability:  87.959  -7.071  66.991  -3.474  -0.516  57.005
 Approx polarizability:  75.712  -4.121  65.264  -3.128   0.846  63.323

 Optimization completed.
    -- Stationary point found.
 SCF Done:  E(UB2PLYPD3) =  -309.159028591     A.U. after   18 cycles
 E2(B2PLYPD3) =    -0.3360622275D+00 E(B2PLYPD3) =    -0.30915902859095D+03
 SCF Done:  E(UB2PLYPD3) =  -309.161191656     A.U. after   18 cycles
 E2(B2PLYPD3) =    -0.3359528649D+00 E(B2PLYPD3) =    -0.30916119165567D+03
 SCF Done:  E(UB2PLYPD3) =  -309.161206771     A.U. after   16 cycles
 E2(B2PLYPD3) =    -0.3359298304D+00 E(B2PLYPD3) =    -0.30916120677135D+03
 Optimization completed.
 SCF Done:  E(UB2PLYPD3) =  -309.158025186     A.U. after   18 cycles
 E2(B2PLYPD3) =    -0.3361103837D+00 E(B2PLYPD3) =    -0.30915802518595D+03
 SCF Done:  E(UB2PLYPD3) =  -309.160330620     A.U. after   18 cycles
 E2(B2PLYPD3) =    -0.3359430403D+00 E(B2PLYPD3) =    -0.30916033061965D+03
 SCF Done:  E(UB2PLYPD3) =  -309.160354252     A.U. after   17 cycles
 E2(B2PLYPD3) =    -0.3359246731D+00 E(B2PLYPD3) =    -0.30916035425221D+03
 SCF Done:  E(UB2PLYPD3) =  -309.156832300     A.U. after   18 cycles
 E2(B2PLYPD3) =    -0.3361151283D+00 E(B2PLYPD3) =    -0.30915683230022D+03
 SCF Done:  E(UB2PLYPD3) =  -309.159394958     A.U. after   18 cycles
 E2(B2PLYPD3) =    -0.3359063876D+00 E(B2PLYPD3) =    -0.30915939495838D+03
 SCF Done:  E(UB2PLYPD3) =  -309.159429416     A.U. after   16 cycles
 E2(B2PLYPD3) =    -0.3358997461D+00 E(B2PLYPD3) =    -0.30915942941563D+03
 E2(B2PLYPD3) =    -0.3360477049D+00 E(B2PLYPD3) =    -0.30915879909648D+03
 E2(B2PLYPD3) =    -0.3358532712D+00 E(B2PLYPD3) =    -0.30915910475767D+03
 E2(B2PLYPD3) =    -0.3359824977D+00 E(B2PLYPD3) =    -0.30915901727533D+03
 E2(B2PLYPD3) =    -0.3359430615D+00 E(B2PLYPD3) =    -0.30915916767643D+03
 E2(B2PLYPD3) =    -0.3359347588D+00 E(B2PLYPD3) =    -0.30915928763865D+03
 E2(B2PLYPD3) =    -0.3359227066D+00 E(B2PLYPD3) =    -0.30915940912261D+03
 E2(B2PLYPD3) =    -0.3359037089D+00 E(B2PLYPD3) =    -0.30915942826838D+03
 E2(B2PLYPD3) =    -0.3359029797D+00 E(B2PLYPD3) =    -0.30915943024464D+03
 E2(B2PLYPD3) =    -0.3359031836D+00 E(B2PLYPD3) =    -0.30915943025400D+03
 E2(B2PLYPD3) =    -0.3359176306D+00 E(B2PLYPD3) =    -0.30915938540312D+03
 E2(B2PLYPD3) =    -0.3359104622D+00 E(B2PLYPD3) =    -0.30915940717617D+03
 E2(B2PLYPD3) =    -0.3359089269D+00 E(B2PLYPD3) =    -0.30915940718341D+03
 E2(B2PLYPD3) =    -0.3359104153D+00 E(B2PLYPD3) =    -0.30915940735953D+03
 E2(B2PLYPD3) =    -0.3359509714D+00 E(B2PLYPD3) =    -0.30915769511469D+03
 E2(B2PLYPD3) =    -0.3359414910D+00 E(B2PLYPD3) =    -0.30916032406080D+03
 E2(B2PLYPD3) =    -0.3359364380D+00 E(B2PLYPD3) =    -0.30916033360876D+03
 E2(B2PLYPD3) =    -0.3359379510D+00 E(B2PLYPD3) =    -0.30916033365634D+03
 E2(B2PLYPD3) =    -0.3359378065D+00 E(B2PLYPD3) =    -0.30916033367264D+03
 E2(B2PLYPD3) =    -0.3359380196D+00 E(B2PLYPD3) =    -0.30916033367678D+03
 SCF Done:  E(UB2PLYPD3) =  -309.158871262     A.U. after   17 cycles
 E2(B2PLYPD3) =    -0.3359798265D+00 E(B2PLYPD3) =    -0.30915887126199D+03
 SCF Done:  E(UB2PLYPD3) =  -309.161195140     A.U. after   18 cycles
 E2(B2PLYPD3) =    -0.3359591813D+00 E(B2PLYPD3) =    -0.30916119514017D+03
 SCF Done:  E(UB2PLYPD3) =  -309.161202005     A.U. after   16 cycles
 E2(B2PLYPD3) =    -0.3359423954D+00 E(B2PLYPD3) =    -0.30916120200499D+03
 SCF Done:  E(UB2PLYPD3) =  -309.161202091     A.U. after   14 cycles
 E2(B2PLYPD3) =    -0.3359414665D+00 E(B2PLYPD3) =    -0.30916120209138D+03
 SCF Done:  E(UB2PLYPD3) =  -309.161202133     A.U. after   14 cycles
 E2(B2PLYPD3) =    -0.3359416148D+00 E(B2PLYPD3) =    -0.30916120213347D+03
 SCF Done:  E(UB2PLYPD3) =  -309.161202137     A.U. after   13 cycles
 E2(B2PLYPD3) =    -0.3359416595D+00 E(B2PLYPD3) =    -0.30916120213656D+03
    -- Stationary point found.
 SCF Done:  E(UB2PLYPD3) =  -309.159373685     A.U. after   18 cycles
 E2(B2PLYPD3) =    -0.3360146137D+00 E(B2PLYPD3) =    -0.30915937368482D+03
 SCF Done:  E(UB2PLYPD3) =  -309.161529885     A.U. after   18 cycles
 E2(B2PLYPD3) =    -0.3359363168D+00 E(B2PLYPD3) =    -0.30916152988478D+03
 SCF Done:  E(UB2PLYPD3) =  -309.161540388     A.U. after   16 cycles
 E2(B2PLYPD3) =    -0.3359295742D+00 E(B2PLYPD3) =    -0.30916154038763D+03
 SCF Done:  E(UB2PLYPD3) =  -309.161540484     A.U. after   15 cycles
 E2(B2PLYPD3) =    -0.3359324171D+00 E(B2PLYPD3) =    -0.30916154048448D+03
 Optimization completed.
    -- Stationary point found.

                         Standard orientation:
 ---------------------------------------------------------------------
 Center     Atomic      Atomic             Coordinates (Angstroms)
 Number     Number       Type             X           Y           Z
 ---------------------------------------------------------------------
      1          6           0       -2.179868   -0.736838   -0.141622
      2          1           0       -2.682744   -1.207500   -0.984532
      3          1           0       -2.417945   -1.282777    0.777956
      4          1           0       -2.515557    0.298739   -0.041560
      5          8           0       -0.778405   -0.800195   -0.413951
      6          6           0        0.006524   -0.260789    0.593935
      7          1           0       -0.214610   -0.676586    1.581924
      8          8           0       -0.047466    1.119550    0.708334
      9          6           0        0.331271    1.819640   -0.476986
     10          1           0        1.362039    1.577909   -0.752788
     11          1           0       -0.329217    1.573290   -1.311013
     12          1           0        0.253470    2.879345   -0.243028
     13          1           0        1.218242   -0.640468    0.263485
     14          6           0        2.472036   -1.081501   -0.140025
     15          1           0        3.174131   -0.366425    0.281223
     16          1           0        2.427717   -1.075726   -1.225540
     17          1           0        2.551667   -2.077707    0.286996
 ---------------------------------------------------------------------

 The electronic state is 2-A.
 Alpha  occ. eigenvalues --  -19.73931 -19.73639 -10.71315 -10.66157 -10.65783
 Alpha  occ. eigenvalues --  -10.60720  -1.22605  -1.15947  -0.84628  -0.80435
 Alpha  occ. eigenvalues --   -0.79494  -0.70311  -0.59032  -0.58522  -0.58336
 Alpha  occ. eigenvalues --   -0.51825  -0.50646  -0.48930  -0.47016  -0.46887
 Alpha  occ. eigenvalues --   -0.45662  -0.43733  -0.39757  -0.36528  -0.35363
 Alpha  occ. eigenvalues --   -0.23769
 Alpha virt. eigenvalues --    0.01477   0.02711   0.03157   0.03997   0.05509
 Alpha virt. eigenvalues --    0.05816   0.06295   0.06691   0.07228   0.08667
 Alpha virt. eigenvalues --    0.09105   0.10128   0.11107   0.12467   0.12704

  Beta  occ. eigenvalues --  -19.73719 -19.73616 -10.70042 -10.66085 -10.65777
  Beta  occ. eigenvalues --  -10.59364  -1.21975  -1.15617  -0.83408  -0.79856
  Beta  occ. eigenvalues --   -0.76361  -0.68883  -0.58589  -0.58124  -0.56059
  Beta  occ. eigenvalues --   -0.51317  -0.50560  -0.48116  -0.46162  -0.46041
  Beta  occ. eigenvalues --   -0.43890  -0.43291  -0.37516  -0.35402  -0.35019
  Beta virt. eigenvalues --   -0.00147   0.01513   0.03038   0.03383   0.04077
  Beta virt. eigenvalues --    0.05622   0.05848   0.06424   0.06780   0.07250
  Beta virt. eigenvalues --    0.08692   0.09237   0.10216   0.11165   0.12492

 Mulliken charges and spin densities:
               1          2
     1  C   -0.232564   0.017138
     2  H    0.147423   0.003009
     3  H    0.130508   0.000671
     4  H    0.142827  -0.002267
     5  O   -0.158972  -0.005730
     6  C   -0.313524   0.465000
     7  H    0.156442  -0.012653
     8  O   -0.171761   0.041081
     9  C   -0.251460   0.000288
    10  H    0.133894   0.002618
    11  H    0.136864   0.000614
    12  H    0.156642  -0.000658
    13  H    0.231985  -0.119264
    14  C   -0.534536   0.686882
    15  H    0.139452  -0.025414
    16  H    0.150248  -0.025668
    17  H    0.136535  -0.025648
 Sum of Mulliken charges =   0.00000   1.00000

 Dipole moment (field-independent basis, Debye):
    X=             -0.7730    Y=              0.2397    Z=             -0.2576  Tot=              0.8493
 Quadrupole moment (field-independent basis, Debye-Ang):
   XX=            -36.7696   YY=            -39.1797   ZZ=            -40.5657
   XY=              1.8830   XZ=              0.0809   YZ=             -3.9688

 Normal termination of Gaussian 09 at Fri Jul  8 03:43:03 2016.
