 Gaussian 09, Revision D.01,
 Gaussian 09:  ES64L-G09RevD.01 24-Apr-2013

 ------------------------------------------------------------------
 # ccsd(t,t1diag) aug-cc-pvdz geom=connectivity scf=(conver=11,xqc)
 ------------------------------------------------------------------

 -------------------
 Title Card Required
 -------------------
 Symbolic Z-matrix:
 Charge =  0 Multiplicity = 2

                         Standard orientation:
 ---------------------------------------------------------------------
 Center     Atomic      Atomic             Coordinates (Angstroms)
 Number     Number       Type             X           Y           Z
 ---------------------------------------------------------------------
      1          6           0       -2.179781   -0.736971   -0.141647
      2          1           0       -2.682579   -1.207719   -0.984555
      3          1           0       -2.417916   -1.282851    0.777959
      4          1           0       -2.515508    0.298600   -0.041646
      5          8           0       -0.778303   -0.800308   -0.413894
      6          6           0        0.006605   -0.260809    0.593966
      7          1           0       -0.214436   -0.676644    1.581959
      8          8           0       -0.047550    1.119521    0.708366
      9          6           0        0.330951    1.819651   -0.477005
     10          1           0        1.361601    1.577789   -0.753131
     11          1           0       -0.329812    1.573473   -1.310866
     12          1           0        0.253373    2.879348   -0.242936
     13          1           0        1.218358   -0.640339    0.263469
     14          6           0        2.472185   -1.081255   -0.140073
     15          1           0        3.174161   -0.365530    0.280267
     16          1           0        2.427467   -1.076489   -1.225576
     17          1           0        2.552362   -2.077035    0.287842
 ---------------------------------------------------------------------

 SCF Done:  E(UHF) =  -307.512371596     A.U. after   27 cycles
 E2 =    -0.1000262893D+01 EUMP2 =    -0.30851263448876D+03
 CCSD(T)= -0.30862003579D+03

 The electronic state is 2-A.
 Alpha  occ. eigenvalues --  -20.57582 -20.57487 -11.33588 -11.28198 -11.27755
 Alpha  occ. eigenvalues --  -11.23204  -1.42573  -1.35310  -0.99180  -0.95301
 Alpha  occ. eigenvalues --   -0.93643  -0.83459  -0.69748  -0.69411  -0.68011
 Alpha  occ. eigenvalues --   -0.61493  -0.60092  -0.57790  -0.56160  -0.56004
 Alpha  occ. eigenvalues --   -0.54278  -0.52724  -0.48849  -0.45523  -0.44532
 Alpha  occ. eigenvalues --   -0.31792
 Alpha virt. eigenvalues --    0.03445   0.04491   0.04627   0.05021   0.06458
 Alpha virt. eigenvalues --    0.06686   0.06979   0.07256   0.08177   0.09545
 Alpha virt. eigenvalues --    0.10258   0.12376   0.13506   0.14407   0.15487

  Beta  occ. eigenvalues --  -20.57515 -20.57384 -11.31707 -11.28104 -11.27750
  Beta  occ. eigenvalues --  -11.21152  -1.41737  -1.34988  -0.97136  -0.93565
  Beta  occ. eigenvalues --   -0.89373  -0.81079  -0.69239  -0.67757  -0.65771
  Beta  occ. eigenvalues --   -0.60726  -0.60018  -0.56593  -0.54912  -0.54768
  Beta  occ. eigenvalues --   -0.52540  -0.51561  -0.45821  -0.44552  -0.43360
  Beta virt. eigenvalues --    0.03454   0.04322   0.04603   0.05018   0.06468
  Beta virt. eigenvalues --    0.06640   0.06917   0.07216   0.08199   0.09532
  Beta virt. eigenvalues --    0.10216   0.11916   0.12402   0.13539   0.14425

 Mulliken charges and spin densities:
               1          2
     1  C    0.752612   0.021064
     2  H   -0.239484   0.001625
     3  H   -0.059054  -0.001122
     4  H   -0.061806  -0.003764
     5  O   -0.885622  -0.013873
     6  C    1.280443   0.689847
     7  H   -0.249918  -0.037170
     8  O   -0.916748   0.014529
     9  C    0.821179  -0.010251
    10  H   -0.065962   0.005276
    11  H   -0.067720  -0.000813
    12  H   -0.229421  -0.001242
    13  H   -0.107696  -0.563737
    14  C    0.162567   1.064638
    15  H   -0.031461  -0.056221
    16  H   -0.017077  -0.056229
    17  H   -0.084832  -0.052558
 Sum of Mulliken charges =   0.00000   1.00000

 Dipole moment (field-independent basis, Debye):
    X=             -0.5630    Y=              0.1073    Z=             -0.2582  Tot=              0.6286
 Quadrupole moment (field-independent basis, Debye-Ang):
   XX=            -36.2953   YY=            -39.0358   ZZ=            -40.2523
   XY=              1.5445   XZ=             -0.0033   YZ=             -3.7165

 MP4SDQ=-308.5843838\CCSD=-308.5845326\CCSD(T)=-308.6200358\S2=0.789023
 Normal termination of Gaussian 09 at Fri Jul 15 20:55:47 2016.
