 Gaussian 09, Revision D.01,
 Gaussian 09:  ES64L-G09RevD.01 24-Apr-2013

 ----------------------------------------------------------------------
 # opt=(TS, calcfc, noeigentest, modredundant) 6-311++g(d,p) geom=conne
 ctivity b2plypd3 int=grid=199974 scf=(conver=11,xqc)
 ----------------------------------------------------------------------

 -------------------
 Title Card Required
 -------------------
 Symbolic Z-matrix:
 Charge =  0 Multiplicity = 2

 SCF Done:  E(UB2PLYPD3) =  -309.161540486     A.U. after   21 cycles
 E2(B2PLYPD3) =    -0.3359324388D+00 E(B2PLYPD3) =    -0.30916154048608D+03
 E2(B2PLYPD3) =    -0.3359324388D+00 E(B2PLYPD3) =    -0.30916154048608D+03

  Exact polarizability:  87.959  -7.071  66.991  -3.474  -0.516  57.005
 Approx polarizability:  75.712  -4.121  65.264  -3.128   0.846  63.323

 Optimization completed.
    -- Stationary point found.
 SCF Done:  E(UB2PLYPD3) =  -309.159041874     A.U. after   19 cycles
 E2(B2PLYPD3) =    -0.3360699496D+00 E(B2PLYPD3) =    -0.30915904187444D+03
 SCF Done:  E(UB2PLYPD3) =  -309.161258683     A.U. after   18 cycles
 E2(B2PLYPD3) =    -0.3359657480D+00 E(B2PLYPD3) =    -0.30916125868297D+03
 SCF Done:  E(UB2PLYPD3) =  -309.161275867     A.U. after   17 cycles
 E2(B2PLYPD3) =    -0.3359454292D+00 E(B2PLYPD3) =    -0.30916127586705D+03
 SCF Done:  E(UB2PLYPD3) =  -309.161276023     A.U. after   15 cycles
 E2(B2PLYPD3) =    -0.3359502730D+00 E(B2PLYPD3) =    -0.30916127602317D+03
 SCF Done:  E(UB2PLYPD3) =  -309.161276027     A.U. after   13 cycles
 E2(B2PLYPD3) =    -0.3359497491D+00 E(B2PLYPD3) =    -0.30916127602730D+03
 Optimization completed.
 SCF Done:  E(UB2PLYPD3) =  -309.158337875     A.U. after   18 cycles
 E2(B2PLYPD3) =    -0.3360530745D+00 E(B2PLYPD3) =    -0.30915833787506D+03
 SCF Done:  E(UB2PLYPD3) =  -309.160548588     A.U. after   18 cycles
 E2(B2PLYPD3) =    -0.3359320313D+00 E(B2PLYPD3) =    -0.30916054858758D+03
 SCF Done:  E(UB2PLYPD3) =  -309.160568354     A.U. after   17 cycles
 E2(B2PLYPD3) =    -0.3359223483D+00 E(B2PLYPD3) =    -0.30916056835407D+03
 SCF Done:  E(UB2PLYPD3) =  -309.160568593     A.U. after   15 cycles
 E2(B2PLYPD3) =    -0.3359263987D+00 E(B2PLYPD3) =    -0.30916056859331D+03
 E2(B2PLYPD3) =    -0.3359260012D+00 E(B2PLYPD3) =    -0.30916056859941D+03
 E2(B2PLYPD3) =    -0.3358930305D+00 E(B2PLYPD3) =    -0.30916051544704D+03
 E2(B2PLYPD3) =    -0.3359171752D+00 E(B2PLYPD3) =    -0.30916056281864D+03
 E2(B2PLYPD3) =    -0.3359316127D+00 E(B2PLYPD3) =    -0.30916056775309D+03
 E2(B2PLYPD3) =    -0.3359253466D+00 E(B2PLYPD3) =    -0.30916056859531D+03
 E2(B2PLYPD3) =    -0.3360092982D+00 E(B2PLYPD3) =    -0.30915747999084D+03
 E2(B2PLYPD3) =    -0.3358842081D+00 E(B2PLYPD3) =    -0.30915978772753D+03
 E2(B2PLYPD3) =    -0.3358831689D+00 E(B2PLYPD3) =    -0.30915980812684D+03
 E2(B2PLYPD3) =    -0.3358859539D+00 E(B2PLYPD3) =    -0.30915980837177D+03
 E2(B2PLYPD3) =    -0.3358859128D+00 E(B2PLYPD3) =    -0.30915985231476D+03
 E2(B2PLYPD3) =    -0.3358867044D+00 E(B2PLYPD3) =    -0.30915985236060D+03
 E2(B2PLYPD3) =    -0.3360359709D+00 E(B2PLYPD3) =    -0.30915800080009D+03
 E2(B2PLYPD3) =    -0.3359355644D+00 E(B2PLYPD3) =    -0.30916058646068D+03
 E2(B2PLYPD3) =    -0.3358990156D+00 E(B2PLYPD3) =    -0.30916061885328D+03
 E2(B2PLYPD3) =    -0.3358940770D+00 E(B2PLYPD3) =    -0.30916062346598D+03
 E2(B2PLYPD3) =    -0.3358904567D+00 E(B2PLYPD3) =    -0.30916062382002D+03
 E2(B2PLYPD3) =    -0.3358893982D+00 E(B2PLYPD3) =    -0.30916062386800D+03
 E2(B2PLYPD3) =    -0.3358893159D+00 E(B2PLYPD3) =    -0.30916062387261D+03
 E2(B2PLYPD3) =    -0.3358897162D+00 E(B2PLYPD3) =    -0.30916062387592D+03
 SCF Done:  E(UB2PLYPD3) =  -309.160623879     A.U. after   13 cycles
 E2(B2PLYPD3) =    -0.3358894104D+00 E(B2PLYPD3) =    -0.30916062387851D+03
 SCF Done:  E(UB2PLYPD3) =  -309.158905501     A.U. after   18 cycles
 E2(B2PLYPD3) =    -0.3360313149D+00 E(B2PLYPD3) =    -0.30915890550095D+03
 SCF Done:  E(UB2PLYPD3) =  -309.161280353     A.U. after   18 cycles
 E2(B2PLYPD3) =    -0.3359361162D+00 E(B2PLYPD3) =    -0.30916128035261D+03
 SCF Done:  E(UB2PLYPD3) =  -309.161292084     A.U. after   16 cycles
 E2(B2PLYPD3) =    -0.3359110151D+00 E(B2PLYPD3) =    -0.30916129208368D+03
 SCF Done:  E(UB2PLYPD3) =  -309.161292343     A.U. after   15 cycles
 E2(B2PLYPD3) =    -0.3359097288D+00 E(B2PLYPD3) =    -0.30916129234259D+03
    -- Stationary point found.
 SCF Done:  E(UB2PLYPD3) =  -309.159244612     A.U. after   19 cycles
 E2(B2PLYPD3) =    -0.3360548557D+00 E(B2PLYPD3) =    -0.30915924461173D+03
 SCF Done:  E(UB2PLYPD3) =  -309.161520838     A.U. after   18 cycles
 E2(B2PLYPD3) =    -0.3359357031D+00 E(B2PLYPD3) =    -0.30916152083805D+03
 SCF Done:  E(UB2PLYPD3) =  -309.161537058     A.U. after   17 cycles
 E2(B2PLYPD3) =    -0.3359205419D+00 E(B2PLYPD3) =    -0.30916153705800D+03
 SCF Done:  E(UB2PLYPD3) =  -309.161539421     A.U. after   15 cycles
 E2(B2PLYPD3) =    -0.3359285280D+00 E(B2PLYPD3) =    -0.30916153942073D+03
 SCF Done:  E(UB2PLYPD3) =  -309.161540464     A.U. after   16 cycles
 E2(B2PLYPD3) =    -0.3359326597D+00 E(B2PLYPD3) =    -0.30916154046360D+03
 Optimization completed.
    -- Stationary point found.

                         Standard orientation:
 ---------------------------------------------------------------------
 Center     Atomic      Atomic             Coordinates (Angstroms)
 Number     Number       Type             X           Y           Z
 ---------------------------------------------------------------------
      1          6           0       -2.179397   -0.737505   -0.141663
      2          1           0       -2.682124   -1.208044   -0.984730
      3          1           0       -2.417711   -1.283532    0.777810
      4          1           0       -2.515024    0.298081   -0.041512
      5          8           0       -0.777883   -0.800939   -0.413735
      6          6           0        0.006898   -0.260918    0.593940
      7          1           0       -0.213695   -0.676856    1.581991
      8          8           0       -0.047958    1.119371    0.708422
      9          6           0        0.329706    1.819913   -0.476998
     10          1           0        1.360380    1.578676   -0.753523
     11          1           0       -0.331287    1.573561   -1.310648
     12          1           0        0.251615    2.879531   -0.242719
     13          1           0        1.218818   -0.639780    0.263256
     14          6           0        2.472787   -1.080305   -0.140199
     15          1           0        3.174637   -0.364117    0.279573
     16          1           0        2.427694   -1.076253   -1.225696
     17          1           0        2.553469   -2.075827    0.288220
 ---------------------------------------------------------------------

 The electronic state is 2-A.
 Alpha  occ. eigenvalues --  -19.73932 -19.73639 -10.71315 -10.66157 -10.65784
 Alpha  occ. eigenvalues --  -10.60720  -1.22605  -1.15947  -0.84629  -0.80435
 Alpha  occ. eigenvalues --   -0.79493  -0.70310  -0.59031  -0.58523  -0.58336
 Alpha  occ. eigenvalues --   -0.51827  -0.50644  -0.48930  -0.47016  -0.46885
 Alpha  occ. eigenvalues --   -0.45663  -0.43734  -0.39755  -0.36529  -0.35363
 Alpha  occ. eigenvalues --   -0.23768
 Alpha virt. eigenvalues --    0.01477   0.02711   0.03156   0.03997   0.05509
 Alpha virt. eigenvalues --    0.05816   0.06296   0.06693   0.07225   0.08667
 Alpha virt. eigenvalues --    0.09106   0.10129   0.11107   0.12469   0.12703

  Beta  occ. eigenvalues --  -19.73720 -19.73616 -10.70042 -10.66085 -10.65779
  Beta  occ. eigenvalues --  -10.59363  -1.21975  -1.15617  -0.83409  -0.79856
  Beta  occ. eigenvalues --   -0.76360  -0.68882  -0.58589  -0.58124  -0.56060
  Beta  occ. eigenvalues --   -0.51318  -0.50559  -0.48115  -0.46162  -0.46039
  Beta  occ. eigenvalues --   -0.43891  -0.43293  -0.37515  -0.35402  -0.35020
  Beta virt. eigenvalues --   -0.00146   0.01512   0.03038   0.03382   0.04077
  Beta virt. eigenvalues --    0.05623   0.05849   0.06425   0.06781   0.07248
  Beta virt. eigenvalues --    0.08692   0.09238   0.10216   0.11165   0.12493

 Mulliken charges and spin densities:
               1          2
     1  C   -0.232603   0.017151
     2  H    0.147437   0.003008
     3  H    0.130528   0.000669
     4  H    0.142809  -0.002269
     5  O   -0.158969  -0.005743
     6  C   -0.313436   0.465033
     7  H    0.156438  -0.012646
     8  O   -0.171807   0.041079
     9  C   -0.251413   0.000283
    10  H    0.133873   0.002619
    11  H    0.136814   0.000614
    12  H    0.156664  -0.000657
    13  H    0.231931  -0.119260
    14  C   -0.534465   0.686842
    15  H    0.139415  -0.025407
    16  H    0.150261  -0.025668
    17  H    0.136523  -0.025648
 Sum of Mulliken charges =   0.00000   1.00000

 Dipole moment (field-independent basis, Debye):
    X=             -0.7736    Y=              0.2410    Z=             -0.2582  Tot=              0.8504
 Quadrupole moment (field-independent basis, Debye-Ang):
   XX=            -36.7721   YY=            -39.1784   ZZ=            -40.5658
   XY=              1.8816   XZ=              0.0840   YZ=             -3.9689

 Normal termination of Gaussian 09 at Fri Aug  5 22:12:36 2016.
