 Gaussian 09, Revision D.01,
 Gaussian 09:  ES64L-G09RevD.01 24-Apr-2013

 ----------------------------------------------------------------------
 # opt=(TS, calcfc, noeigentest, modredundant) 6-311++g(d,p) geom=conne
 ctivity b2plypd3 int=grid=199974 scf=(conver=11,xqc)
 ----------------------------------------------------------------------

 -------------------
 Title Card Required
 -------------------
 Symbolic Z-matrix:
 Charge =  0 Multiplicity = 2

 SCF Done:  E(UB2PLYPD3) =  -309.161540486     A.U. after   21 cycles
 E2(B2PLYPD3) =    -0.3359324388D+00 E(B2PLYPD3) =    -0.30916154048608D+03
 E2(B2PLYPD3) =    -0.3359324388D+00 E(B2PLYPD3) =    -0.30916154048608D+03

  Exact polarizability:  87.959  -7.071  66.991  -3.474  -0.516  57.005
 Approx polarizability:  75.712  -4.121  65.264  -3.128   0.846  63.323

 Optimization completed.
    -- Stationary point found.
 SCF Done:  E(UB2PLYPD3) =  -309.157320691     A.U. after   19 cycles
 E2(B2PLYPD3) =    -0.3362240327D+00 E(B2PLYPD3) =    -0.30915732069099D+03
 SCF Done:  E(UB2PLYPD3) =  -309.161172965     A.U. after   18 cycles
 E2(B2PLYPD3) =    -0.3359541095D+00 E(B2PLYPD3) =    -0.30916117296478D+03
 SCF Done:  E(UB2PLYPD3) =  -309.161488907     A.U. after   18 cycles
 E2(B2PLYPD3) =    -0.3358954165D+00 E(B2PLYPD3) =    -0.30916148890721D+03
 SCF Done:  E(UB2PLYPD3) =  -309.161493133     A.U. after   16 cycles
 E2(B2PLYPD3) =    -0.3359121145D+00 E(B2PLYPD3) =    -0.30916149313266D+03
 SCF Done:  E(UB2PLYPD3) =  -309.161493167     A.U. after   15 cycles
 E2(B2PLYPD3) =    -0.3359121527D+00 E(B2PLYPD3) =    -0.30916149316712D+03
 Optimization completed.
 SCF Done:  E(UB2PLYPD3) =  -309.157071422     A.U. after   19 cycles
 E2(B2PLYPD3) =    -0.3362208843D+00 E(B2PLYPD3) =    -0.30915707142173D+03
 SCF Done:  E(UB2PLYPD3) =  -309.161061912     A.U. after   18 cycles
 E2(B2PLYPD3) =    -0.3359425110D+00 E(B2PLYPD3) =    -0.30916106191215D+03
 SCF Done:  E(UB2PLYPD3) =  -309.161380064     A.U. after   18 cycles
 E2(B2PLYPD3) =    -0.3358901530D+00 E(B2PLYPD3) =    -0.30916138006375D+03
 SCF Done:  E(UB2PLYPD3) =  -309.161384565     A.U. after   18 cycles
 E2(B2PLYPD3) =    -0.3359087758D+00 E(B2PLYPD3) =    -0.30916138456530D+03
 E2(B2PLYPD3) =    -0.3359081861D+00 E(B2PLYPD3) =    -0.30916138459979D+03
 E2(B2PLYPD3) =    -0.3362249798D+00 E(B2PLYPD3) =    -0.30915683198732D+03
 E2(B2PLYPD3) =    -0.3359493002D+00 E(B2PLYPD3) =    -0.30916093753644D+03
 E2(B2PLYPD3) =    -0.3359028407D+00 E(B2PLYPD3) =    -0.30916127867680D+03
 E2(B2PLYPD3) =    -0.3359232121D+00 E(B2PLYPD3) =    -0.30916128343823D+03
 E2(B2PLYPD3) =    -0.3359223051D+00 E(B2PLYPD3) =    -0.30916128348459D+03
 E2(B2PLYPD3) =    -0.3362369965D+00 E(B2PLYPD3) =    -0.30915669946298D+03
 E2(B2PLYPD3) =    -0.3359654323D+00 E(B2PLYPD3) =    -0.30916088890000D+03
 E2(B2PLYPD3) =    -0.3359241705D+00 E(B2PLYPD3) =    -0.30916123956543D+03
 E2(B2PLYPD3) =    -0.3359614204D+00 E(B2PLYPD3) =    -0.30916128008479D+03
 E2(B2PLYPD3) =    -0.3359605427D+00 E(B2PLYPD3) =    -0.30916128009880D+03
 E2(B2PLYPD3) =    -0.3362133275D+00 E(B2PLYPD3) =    -0.30915740345277D+03
 E2(B2PLYPD3) =    -0.3359299111D+00 E(B2PLYPD3) =    -0.30916107912457D+03
 E2(B2PLYPD3) =    -0.3359810961D+00 E(B2PLYPD3) =    -0.30916135867817D+03
 E2(B2PLYPD3) =    -0.3359614530D+00 E(B2PLYPD3) =    -0.30916138024894D+03
 E2(B2PLYPD3) =    -0.3359675437D+00 E(B2PLYPD3) =    -0.30916138156935D+03
 E2(B2PLYPD3) =    -0.3359660117D+00 E(B2PLYPD3) =    -0.30916138168342D+03
 E2(B2PLYPD3) =    -0.3359663715D+00 E(B2PLYPD3) =    -0.30916138168091D+03
 E2(B2PLYPD3) =    -0.3359659659D+00 E(B2PLYPD3) =    -0.30916138169937D+03
 SCF Done:  E(UB2PLYPD3) =  -309.157458875     A.U. after   19 cycles
 E2(B2PLYPD3) =    -0.3362244645D+00 E(B2PLYPD3) =    -0.30915745887454D+03
 SCF Done:  E(UB2PLYPD3) =  -309.161205447     A.U. after   19 cycles
 E2(B2PLYPD3) =    -0.3359404576D+00 E(B2PLYPD3) =    -0.30916120544746D+03
 SCF Done:  E(UB2PLYPD3) =  -309.161487611     A.U. after   18 cycles
 E2(B2PLYPD3) =    -0.3359567880D+00 E(B2PLYPD3) =    -0.30916148761131D+03
 SCF Done:  E(UB2PLYPD3) =  -309.161492398     A.U. after   17 cycles
 E2(B2PLYPD3) =    -0.3359571715D+00 E(B2PLYPD3) =    -0.30916149239759D+03
 SCF Done:  E(UB2PLYPD3) =  -309.161492576     A.U. after   15 cycles
 E2(B2PLYPD3) =    -0.3359550666D+00 E(B2PLYPD3) =    -0.30916149257558D+03
    -- Stationary point found.
 SCF Done:  E(UB2PLYPD3) =  -309.157460246     A.U. after   19 cycles
 E2(B2PLYPD3) =    -0.3362275518D+00 E(B2PLYPD3) =    -0.30915746024587D+03
 SCF Done:  E(UB2PLYPD3) =  -309.161244179     A.U. after   19 cycles
 E2(B2PLYPD3) =    -0.3359424807D+00 E(B2PLYPD3) =    -0.30916124417853D+03
 SCF Done:  E(UB2PLYPD3) =  -309.161537014     A.U. after   18 cycles
 E2(B2PLYPD3) =    -0.3359285042D+00 E(B2PLYPD3) =    -0.30916153701444D+03
 SCF Done:  E(UB2PLYPD3) =  -309.161540433     A.U. after   16 cycles
 E2(B2PLYPD3) =    -0.3359330608D+00 E(B2PLYPD3) =    -0.30916154043274D+03
 SCF Done:  E(UB2PLYPD3) =  -309.161540482     A.U. after   14 cycles
 E2(B2PLYPD3) =    -0.3359323096D+00 E(B2PLYPD3) =    -0.30916154048228D+03
 Optimization completed.
    -- Stationary point found.

                         Standard orientation:
 ---------------------------------------------------------------------
 Center     Atomic      Atomic             Coordinates (Angstroms)
 Number     Number       Type             X           Y           Z
 ---------------------------------------------------------------------
      1          6           0       -2.179775   -0.737024   -0.141625
      2          1           0       -2.682555   -1.208110   -0.984356
      3          1           0       -2.417805   -1.282627    0.778171
      4          1           0       -2.515621    0.298540   -0.041948
      5          8           0       -0.778302   -0.800283   -0.413915
      6          6           0        0.006608   -0.260758    0.593926
      7          1           0       -0.214379   -0.676620    1.581918
      8          8           0       -0.047615    1.119566    0.708335
      9          6           0        0.331012    1.819698   -0.476997
     10          1           0        1.361834    1.578153   -0.752761
     11          1           0       -0.329407    1.573190   -1.311032
     12          1           0        0.252993    2.879396   -0.243078
     13          1           0        1.218373   -0.640201    0.263370
     14          6           0        2.472159   -1.081326   -0.140046
     15          1           0        3.174247   -0.365741    0.280350
     16          1           0        2.427579   -1.076728   -1.225555
     17          1           0        2.552059   -2.077062    0.288016
 ---------------------------------------------------------------------

 The electronic state is 2-A.
 Alpha  occ. eigenvalues --  -19.73931 -19.73639 -10.71315 -10.66157 -10.65783
 Alpha  occ. eigenvalues --  -10.60720  -1.22605  -1.15947  -0.84628  -0.80435
 Alpha  occ. eigenvalues --   -0.79493  -0.70311  -0.59032  -0.58522  -0.58336
 Alpha  occ. eigenvalues --   -0.51825  -0.50646  -0.48930  -0.47016  -0.46886
 Alpha  occ. eigenvalues --   -0.45661  -0.43733  -0.39757  -0.36528  -0.35363
 Alpha  occ. eigenvalues --   -0.23769
 Alpha virt. eigenvalues --    0.01477   0.02711   0.03157   0.03997   0.05509
 Alpha virt. eigenvalues --    0.05816   0.06295   0.06692   0.07226   0.08667
 Alpha virt. eigenvalues --    0.09105   0.10128   0.11106   0.12469   0.12704

  Beta  occ. eigenvalues --  -19.73719 -19.73616 -10.70042 -10.66085 -10.65777
  Beta  occ. eigenvalues --  -10.59364  -1.21975  -1.15617  -0.83408  -0.79856
  Beta  occ. eigenvalues --   -0.76361  -0.68883  -0.58589  -0.58124  -0.56059
  Beta  occ. eigenvalues --   -0.51317  -0.50560  -0.48116  -0.46162  -0.46040
  Beta  occ. eigenvalues --   -0.43890  -0.43292  -0.37515  -0.35401  -0.35019
  Beta virt. eigenvalues --   -0.00147   0.01513   0.03038   0.03383   0.04077
  Beta virt. eigenvalues --    0.05623   0.05849   0.06424   0.06781   0.07249
  Beta virt. eigenvalues --    0.08692   0.09237   0.10216   0.11164   0.12493

 Mulliken charges and spin densities:
               1          2
     1  C   -0.232562   0.017139
     2  H    0.147422   0.003006
     3  H    0.130509   0.000671
     4  H    0.142820  -0.002266
     5  O   -0.158994  -0.005733
     6  C   -0.313466   0.465017
     7  H    0.156444  -0.012654
     8  O   -0.171764   0.041080
     9  C   -0.251432   0.000287
    10  H    0.133875   0.002617
    11  H    0.136851   0.000613
    12  H    0.156651  -0.000659
    13  H    0.231931  -0.119261
    14  C   -0.534499   0.686867
    15  H    0.139427  -0.025412
    16  H    0.150261  -0.025664
    17  H    0.136527  -0.025650
 Sum of Mulliken charges =   0.00000   1.00000

 Dipole moment (field-independent basis, Debye):
    X=             -0.7729    Y=              0.2397    Z=             -0.2576  Tot=              0.8492
 Quadrupole moment (field-independent basis, Debye-Ang):
   XX=            -36.7701   YY=            -39.1796   ZZ=            -40.5654
   XY=              1.8832   XZ=              0.0815   YZ=             -3.9687

 Normal termination of Gaussian 09 at Thu Jul  7 08:42:17 2016.
